/*--------------------------------*- C++ -*----------------------------------*\
  | =========                 |                                                 |
  | \\      /  F ield         | OpenFOAM: The Open Source CFD Toolbox           |
  |  \\    /   O peration     | Version:  v2012                                 |
  |   \\  /    A nd           | Website:  www.openfoam.com                      |
  |    \\/     M anipulation  |                                                 |
  \*---------------------------------------------------------------------------*/
FoamFile
{
    version     2.0;
    format      ascii;
    class       volScalarField;
    object      alpha.snow;
}
// * * * * * * * * * * * * * * * * * * * * * * * * * * * * * * * * * * * * * //

dimensions      [0 0 0 0 0 0 0];

internalField   uniform 0;

boundaryField
{
    default
    {
        type            zeroGradient;
    }

    top
    {
        type            inletOutlet;
        inletValue      uniform 0;
        value           uniform 0;
    }

    bottom
    {
        type 	codedFixedValue;
        value   uniform 0;

        name    dslFixedValue;

        code
#{
    const fvPatch& boundaryPatch = patch(); 
    const vectorField& Cf = boundaryPatch.Cf();
    scalarField& field = *this;

    const auto& internal_field = patchInternalField();
    forAll(Cf, i) {
    	const scalar x = Cf[i].x();
	const scalar y = Cf[i].y();    
	
	field[i] = 0.0;
    	
    	if(x >= <<<XMIN>>> && x <= <<<XMAX>>> && y >= <<<YMIN>>> && y <= <<<YMAX>>>)
    		field[i] = <<<VALUE>>>;
    }
#};
    }

    inlet
    {
        type            inletOutlet;
        inletValue      uniform 0;
        value           uniform 0;
    }

    outlet
    {
        type            inletOutlet;
        inletValue      uniform 0;
        value           uniform 0;
    }

    walls
    {
        type            empty;
    }
}


// ************************************************************************* //
